# Time	Flux
0.0000000000e+00 2.9331446820e+00
1.0000000000e+02 4.1467610284e+00
2.0000000000e+02 2.0736014663e+00
3.0000000000e+02 1.6438193438e+00
4.0000000000e+02 1.0419911116e+00
5.0000000000e+02 2.5117221147e+00
6.0000000000e+02 5.1453036448e+00
7.0000000000e+02 1.5376942540e+00
8.0000000000e+02 3.8971443220e+00
9.0000000000e+02 3.7888798562e+00
1.0000000000e+03 5.2315014553e+00
1.1000000000e+03 5.3233820793e+00
1.2000000000e+03 3.1628175027e+00
1.3000000000e+03 1.1045981202e+00
1.4000000000e+03 6.9454154742e-01
1.5000000000e+03 3.4008657450e+00
1.6000000000e+03 4.9202364549e+00
1.7000000000e+03 1.1215605944e+01
1.8000000000e+03 2.4748553572e+00
1.9000000000e+03 4.9549533885e+00
2.0000000000e+03 4.2887118701e+00
2.1000000000e+03 6.8790406913e+00
2.2000000000e+03 9.4814846941e+00
2.3000000000e+03 1.0391531749e+01
2.4000000000e+03 1.1091365806e+01
2.5000000000e+03 3.3982037922e+01
2.6000000000e+03 7.3087229725e+00
2.7000000000e+03 2.1514037942e+01
2.8000000000e+03 3.0213636654e+01
2.9000000000e+03 5.2035566467e+01
3.0000000000e+03 2.6390658491e+01
3.1000000000e+03 2.0991300247e+01
3.2000000000e+03 5.5026276822e+00
3.3000000000e+03 2.3737357048e+01
3.4000000000e+03 2.9997224764e+01
3.5000000000e+03 4.0102965117e+01
3.6000000000e+03 5.3324939226e+00
3.7000000000e+03 3.3440776857e+01
3.8000000000e+03 2.5676240596e+01
3.9000000000e+03 6.6678233392e+00
4.0000000000e+03 1.9824457789e+01
4.1000000000e+03 3.4338724261e+01
4.2000000000e+03 3.0285586236e+01
4.3000000000e+03 1.1748057590e+01
4.4000000000e+03 8.6917846101e+00
4.5000000000e+03 2.6963668527e+01
4.6000000000e+03 7.1357834105e+00
4.7000000000e+03 1.8709335575e+01
4.8000000000e+03 3.4852623873e+01
4.9000000000e+03 3.1055055591e+01
5.0000000000e+03 1.0380653384e+01
5.1000000000e+03 1.5214960336e+01
5.2000000000e+03 6.2854493944e+01
5.3000000000e+03 4.4110086903e+01
5.4000000000e+03 3.2998283412e+01
5.5000000000e+03 1.3928041031e+01
5.6000000000e+03 1.7499547609e+01
5.7000000000e+03 1.7492358729e+01
5.8000000000e+03 1.3625310730e+01
5.9000000000e+03 1.7065166479e+01
6.0000000000e+03 1.6477663345e+01
6.1000000000e+03 1.0457006048e+01
6.2000000000e+03 1.1046995936e+01
6.3000000000e+03 1.8327158799e+01
6.4000000000e+03 4.2729673442e+01
6.5000000000e+03 3.1088877744e+01
6.6000000000e+03 1.2568920943e+01
6.7000000000e+03 2.1302799917e+01
6.8000000000e+03 3.0661252618e+00
6.9000000000e+03 2.7532905235e+00
7.0000000000e+03 9.0555369312e-01
7.1000000000e+03 9.7257617521e-01
7.2000000000e+03 1.4718589965e+00
7.3000000000e+03 8.3163717162e+00
7.4000000000e+03 6.0900293325e+00
7.5000000000e+03 9.7519617509e+00
7.6000000000e+03 8.7545077870e+00
7.7000000000e+03 2.4677593228e+00
7.8000000000e+03 7.8088477611e+00
7.9000000000e+03 4.6373880480e+00
8.0000000000e+03 1.1191158338e+00
8.1000000000e+03 1.6503343461e+00
8.2000000000e+03 2.4948147837e+00
8.3000000000e+03 1.8285145379e+00
8.4000000000e+03 3.1549085104e+00
8.5000000000e+03 3.2980306605e+00
8.6000000000e+03 1.6264419695e+00
8.7000000000e+03 2.2039753819e+00
8.8000000000e+03 1.9984370692e+00
8.9000000000e+03 5.7339353233e+00
9.0000000000e+03 2.1749277752e+00
9.1000000000e+03 6.1196922991e+00
9.2000000000e+03 1.7237785381e+00
9.3000000000e+03 4.6461577536e+00
9.4000000000e+03 7.6680772547e+00
9.5000000000e+03 1.8743604248e+00
9.6000000000e+03 2.2286407664e+00
9.7000000000e+03 6.4271380008e+00
9.8000000000e+03 3.8830623260e+00
9.9000000000e+03 3.1543984295e+01
1.0000000000e+04 2.8405338270e+00
1.0100000000e+04 8.1662101749e+00
1.0200000000e+04 3.4683017984e+00
1.0300000000e+04 3.1957516690e+00
1.0400000000e+04 1.6436080620e+01
1.0500000000e+04 4.2886189227e+01
1.0600000000e+04 4.6263773916e+01
1.0700000000e+04 2.4706177898e+01
1.0800000000e+04 7.0581404456e+00
1.0900000000e+04 1.5364654113e+01
1.1000000000e+04 3.5861866245e+01
1.1100000000e+04 2.4008837330e+01
1.1200000000e+04 9.0800385421e+00
1.1300000000e+04 5.9863788561e+01
1.1400000000e+04 3.0903086926e+01
1.1500000000e+04 9.3724339970e+00
1.1600000000e+04 9.1398111486e+00
1.1700000000e+04 1.7452787678e+01
1.1800000000e+04 1.3049466289e+01
1.1900000000e+04 4.2530752600e+00
1.2000000000e+04 8.4216413454e+00
1.2100000000e+04 3.0642751486e+00
1.2200000000e+04 9.5586496488e-01
1.2300000000e+04 5.3427670891e+00
1.2400000000e+04 5.0588004906e+00
1.2500000000e+04 4.6338457075e+00
1.2600000000e+04 1.2022255255e+00
1.2700000000e+04 1.7340049098e+00
1.2800000000e+04 2.0014108422e+00
1.2900000000e+04 3.7432295126e+00
1.3000000000e+04 3.8445120334e+00
1.3100000000e+04 3.9439639540e+00
1.3200000000e+04 6.0147293254e+00
1.3300000000e+04 1.0362946616e+01
1.3400000000e+04 4.9477588371e+00
1.3500000000e+04 7.6825277852e+00
1.3600000000e+04 6.7884980968e+00
1.3700000000e+04 6.0136492737e+00
1.3800000000e+04 7.3038057106e+00
1.3900000000e+04 6.6574353499e+00
1.4000000000e+04 3.8813705789e+00
1.4100000000e+04 8.1770029892e+00
1.4200000000e+04 6.2410582431e+00
1.4300000000e+04 9.3991261553e+00
1.4400000000e+04 1.0523196969e+00
1.4500000000e+04 1.1200646524e+00
1.4600000000e+04 3.0760431661e+00
1.4700000000e+04 2.7590168545e+00
1.4800000000e+04 2.8309396159e+00
1.4900000000e+04 5.1939209944e+00
1.5000000000e+04 4.9992876214e+00
1.5100000000e+04 6.4095752387e+00
1.5200000000e+04 9.4701485628e+00
1.5300000000e+04 1.6626034540e+01
1.5400000000e+04 3.8533312274e+00
1.5500000000e+04 1.2474782095e+01
1.5600000000e+04 1.1139622230e+01
1.5700000000e+04 2.7485797203e+01
1.5800000000e+04 2.7019931855e+01
1.5900000000e+04 2.6790850479e+01
1.6000000000e+04 3.4002810185e+01
1.6100000000e+04 3.6329859064e+01
1.6200000000e+04 1.1115050989e+01
1.6300000000e+04 4.1265619682e+01
1.6400000000e+04 2.5084725752e+01
1.6500000000e+04 1.6354273772e+01
1.6600000000e+04 1.3086678285e+01
1.6700000000e+04 1.1482224207e+01
1.6800000000e+04 1.3753187068e+01
1.6900000000e+04 1.1879994507e+01
1.7000000000e+04 1.5635566883e+01
1.7100000000e+04 4.6342592818e+00
1.7200000000e+04 1.6902949225e+00
1.7300000000e+04 3.0480647852e+00
1.7400000000e+04 9.8612223269e-01
1.7500000000e+04 3.7452429167e+00
1.7600000000e+04 4.4156793132e+00
1.7700000000e+04 7.6678385721e+00
1.7800000000e+04 6.6317469333e+00
1.7900000000e+04 1.0837992129e+01
1.8000000000e+04 7.5147835429e+00
1.8100000000e+04 7.9223387020e+00
1.8200000000e+04 1.6072824288e+01
1.8300000000e+04 8.3942904568e+00
1.8400000000e+04 3.8693562282e+00
1.8500000000e+04 1.3836740759e+01
1.8600000000e+04 1.6117574547e+01
1.8700000000e+04 1.8481629568e+01
1.8800000000e+04 1.7320470258e+01
1.8900000000e+04 3.6021411288e+01
1.9000000000e+04 2.8177673426e+01
1.9100000000e+04 1.1690473308e+01
1.9200000000e+04 2.1084833721e+00
1.9300000000e+04 6.8300949501e+00
1.9400000000e+04 2.0506592087e+00
1.9500000000e+04 1.5537914890e+00
1.9600000000e+04 7.4398329011e-01
1.9700000000e+04 4.2796023759e+00
1.9800000000e+04 1.8796514924e+00
1.9900000000e+04 4.8353763360e+00
2.0000000000e+04 1.8512082485e+00
2.0100000000e+04 1.8717633903e+00
2.0200000000e+04 6.5233434725e-01
2.0300000000e+04 7.7204585139e-01
2.0400000000e+04 1.5635463019e+00
2.0500000000e+04 1.3637365885e+00
2.0600000000e+04 2.3755314867e+00
2.0700000000e+04 6.1213084934e-01
2.0800000000e+04 1.4711767864e+00
2.0900000000e+04 1.8335540500e+00
2.1000000000e+04 1.8013514919e+00
2.1100000000e+04 6.3190739920e-01
2.1200000000e+04 8.9707536807e-01
2.1300000000e+04 4.0225218459e-01
2.1400000000e+04 2.2966255040e-01
2.1500000000e+04 1.3484625367e-01
2.1600000000e+04 2.2307869017e-01
2.1700000000e+04 2.1458591893e-01
2.1800000000e+04 5.0052762647e-01
2.1900000000e+04 2.9985311460e-01
2.2000000000e+04 5.9199590806e-01
2.2100000000e+04 2.5184523936e-01
2.2200000000e+04 6.0697197453e-01
2.2300000000e+04 8.0797357163e-01
2.2400000000e+04 1.7434739906e+00
2.2500000000e+04 1.0656503571e+00
2.2600000000e+04 7.5036077644e-01
2.2700000000e+04 4.1184855428e-01
2.2800000000e+04 1.0499083808e+00
2.2900000000e+04 1.5542050521e+00
2.3000000000e+04 1.5276210075e+00
2.3100000000e+04 3.6561033938e+00
2.3200000000e+04 3.6733381430e+00
2.3300000000e+04 1.7193858637e+00
2.3400000000e+04 9.3387941917e-01
2.3500000000e+04 2.2235731749e+00
2.3600000000e+04 1.3888834302e+00
2.3700000000e+04 6.3455529716e-01
2.3800000000e+04 5.2992577053e-01
2.3900000000e+04 7.2506209300e-01
2.4000000000e+04 2.6486146236e+00
2.4100000000e+04 2.6882660328e+00
2.4200000000e+04 9.9662628449e-01
2.4300000000e+04 2.8950719370e+00
2.4400000000e+04 2.7376546211e+00
2.4500000000e+04 5.2368132950e-01
2.4600000000e+04 6.6528446783e-01
2.4700000000e+04 2.7511414716e-01
2.4800000000e+04 1.4761413018e-01
2.4900000000e+04 3.3580121362e-01
2.5000000000e+04 3.9782740204e-01
2.5100000000e+04 1.0506604212e+00
2.5200000000e+04 2.6629626921e+00
2.5300000000e+04 2.7097446177e+00
2.5400000000e+04 2.0541808904e+00
2.5500000000e+04 1.5954024927e+00
2.5600000000e+04 1.4285252871e+00
2.5700000000e+04 4.4800555505e+00
2.5800000000e+04 2.2515728719e+00
2.5900000000e+04 2.7548394841e+00
2.6000000000e+04 4.0631194069e-01
2.6100000000e+04 3.4076680432e-01
2.6200000000e+04 3.9827265408e-01
2.6300000000e+04 2.0374456804e-01
2.6400000000e+04 5.1801730406e-01
2.6500000000e+04 4.4709858864e-01
2.6600000000e+04 2.6582943768e-01
2.6700000000e+04 3.0098817139e-01
2.6800000000e+04 1.7672322442e-01
2.6900000000e+04 1.7044239429e-01
2.7000000000e+04 1.6417092192e-01
2.7100000000e+04 2.6909218119e-01
2.7200000000e+04 2.1027558888e-01
2.7300000000e+04 3.9970424060e-01
2.7400000000e+04 2.3473072141e-01
2.7500000000e+04 4.6478579592e-01
2.7600000000e+04 2.4706412129e-01
2.7700000000e+04 1.0906706896e-01
2.7800000000e+04 1.2122300807e+00
2.7900000000e+04 9.5389419161e-01
2.8000000000e+04 8.9607539818e-01
2.8100000000e+04 9.0650196766e-02
2.8200000000e+04 3.6639709865e-01
2.8300000000e+04 3.3982911444e-01
2.8400000000e+04 6.9581359454e-01
2.8500000000e+04 1.6408082837e+00
2.8600000000e+04 2.0910079780e+00
2.8700000000e+04 1.3749828416e+00
2.8800000000e+04 3.7852737492e+00
2.8900000000e+04 6.8222780239e-01
2.9000000000e+04 2.6731095226e-01
2.9100000000e+04 6.3928980767e-01
2.9200000000e+04 1.3780566757e+00
2.9300000000e+04 1.4586722992e+00
2.9400000000e+04 1.1336770221e+00
2.9500000000e+04 2.0133884410e+00
2.9600000000e+04 1.1792459217e+00
2.9700000000e+04 3.9438650189e+00
2.9800000000e+04 8.6476736283e+00
2.9900000000e+04 2.5512337911e+00
3.0000000000e+04 2.3826340819e+00
3.0100000000e+04 4.3196709633e+00
3.0200000000e+04 4.2667135348e+00
3.0300000000e+04 3.4805824065e+00
3.0400000000e+04 2.7970539321e+00
3.0500000000e+04 3.1357726276e+00
3.0600000000e+04 4.3559352100e+00
3.0700000000e+04 1.9832338582e+00
3.0800000000e+04 3.1118016554e+00
3.0900000000e+04 3.0709253843e+00
3.1000000000e+04 1.6898960588e+00
3.1100000000e+04 9.4347097080e-01
3.1200000000e+04 2.7095640514e+00
3.1300000000e+04 1.7551091910e+00
3.1400000000e+04 1.6166508866e+00
3.1500000000e+04 3.4049240772e+00
3.1600000000e+04 4.3557979265e+00
3.1700000000e+04 1.2116239508e+00
3.1800000000e+04 1.9681905894e+00
3.1900000000e+04 2.1383178951e+00
3.2000000000e+04 1.2498966118e+00
3.2100000000e+04 5.7731859686e-01
3.2200000000e+04 3.7468914000e+00
3.2300000000e+04 3.1981339965e+00
3.2400000000e+04 3.6477408901e+00
3.2500000000e+04 2.6954962009e+00
3.2600000000e+04 1.3354345949e+00
3.2700000000e+04 3.3379812161e+00
3.2800000000e+04 4.9445748366e+00
3.2900000000e+04 6.3083392621e+00
3.3000000000e+04 1.0450211702e+00
3.3100000000e+04 6.3330860882e-01
3.3200000000e+04 5.6820271964e-01
3.3300000000e+04 3.0784085587e-01
3.3400000000e+04 9.0151884792e-02
3.3500000000e+04 1.1445109774e-01
3.3600000000e+04 4.5905753894e-01
3.3700000000e+04 4.9706735741e-01
3.3800000000e+04 3.2427732829e-01
3.3900000000e+04 4.9208861281e-01
3.4000000000e+04 7.0234609383e-01
3.4100000000e+04 6.7403439964e-01
3.4200000000e+04 6.7080067070e-01
3.4300000000e+04 4.0269111157e-01
3.4400000000e+04 6.1319896210e-01
3.4500000000e+04 2.8523663132e+00
3.4600000000e+04 7.2705268165e+00
3.4700000000e+04 4.7850873514e+00
3.4800000000e+04 2.9322225422e+00
3.4900000000e+04 1.4872654134e+00
3.5000000000e+04 1.1369097901e+00
3.5100000000e+04 1.7225726296e+00
3.5200000000e+04 5.3889357181e-01
3.5300000000e+04 2.0636807612e+00
3.5400000000e+04 6.5641623989e-01
3.5500000000e+04 1.1799059664e+00
3.5600000000e+04 1.2417057536e+00
3.5700000000e+04 8.6639847607e-01
3.5800000000e+04 9.5063124667e-01
3.5900000000e+04 4.1967424073e+00
3.6000000000e+04 1.4350826476e+00
3.6100000000e+04 1.1321113092e+00
3.6200000000e+04 1.6106433854e+00
3.6300000000e+04 2.4610315059e+00
3.6400000000e+04 1.2501350060e+01
3.6500000000e+04 1.2728749074e+00
3.6600000000e+04 3.6750682654e+00
3.6700000000e+04 1.2315783123e+01
3.6800000000e+04 9.3750465425e+00
3.6900000000e+04 1.0317540044e+01
3.7000000000e+04 1.3542392457e+01
3.7100000000e+04 4.8562210127e+00
3.7200000000e+04 4.5445164849e+00
3.7300000000e+04 1.7452892721e+00
3.7400000000e+04 2.4548747838e+00
3.7500000000e+04 4.3453304979e+00
3.7600000000e+04 5.8775534005e+00
3.7700000000e+04 1.6222897573e+01
3.7800000000e+04 2.6359505588e+00
3.7900000000e+04 3.0771401477e+00
3.8000000000e+04 6.9360941528e+00
3.8100000000e+04 2.1692250810e+00
3.8200000000e+04 6.9532688266e+00
3.8300000000e+04 9.8017588209e+00
3.8400000000e+04 7.8375670135e+00
3.8500000000e+04 8.8353466120e+00
3.8600000000e+04 1.2245537691e+01
3.8700000000e+04 3.1483362249e+01
3.8800000000e+04 7.3329949377e+00
3.8900000000e+04 4.3972488363e+00
3.9000000000e+04 7.0956005865e+00
3.9100000000e+04 7.7219971334e+00
3.9200000000e+04 1.2165649876e+01
3.9300000000e+04 2.6759885206e+00
3.9400000000e+04 1.1254420615e+00
3.9500000000e+04 8.5120508366e+00
3.9600000000e+04 6.5208300767e+00
3.9700000000e+04 5.7846354793e+00
3.9800000000e+04 8.1391872558e+00
3.9900000000e+04 5.7659211009e+00
4.0000000000e+04 3.6168610952e+00
4.0100000000e+04 1.9189548531e+00
4.0200000000e+04 4.0392172693e+00
4.0300000000e+04 3.1361168179e+00
4.0400000000e+04 3.7351345109e+00
4.0500000000e+04 3.3209945116e+00
4.0600000000e+04 3.2081348477e+00
4.0700000000e+04 1.3082897843e+00
4.0800000000e+04 1.6240081037e+00
4.0900000000e+04 1.8970162675e+00
4.1000000000e+04 1.6899903016e+00
4.1100000000e+04 7.2911326642e+00
4.1200000000e+04 2.8293265887e+00
4.1300000000e+04 2.4961632592e+00
4.1400000000e+04 2.7653823886e+00
4.1500000000e+04 2.0920636884e+00
4.1600000000e+04 1.2060512707e+00
4.1700000000e+04 2.5631625444e+00
4.1800000000e+04 3.2165948270e+00
4.1900000000e+04 9.7966244715e+00
4.2000000000e+04 3.6231120578e+00
4.2100000000e+04 1.0749011285e+01
4.2200000000e+04 8.1332191811e+00
4.2300000000e+04 1.6382786906e+01
4.2400000000e+04 1.5315232210e+00
4.2500000000e+04 4.5832136145e+00
4.2600000000e+04 1.7728064967e+01
4.2700000000e+04 8.1054639404e+00
4.2800000000e+04 5.3455339922e+00
4.2900000000e+04 3.9889168175e+00
4.3000000000e+04 6.6596605702e+00
4.3100000000e+04 3.5375622919e+00
4.3200000000e+04 5.3091946435e+00
4.3300000000e+04 2.7079989795e+01
4.3400000000e+04 5.1094808674e+01
4.3500000000e+04 3.2690729118e+01
4.3600000000e+04 9.9274151836e+01
4.3700000000e+04 1.6227528362e+01
4.3800000000e+04 1.2196776936e+01
4.3900000000e+04 2.9776911897e+01
4.4000000000e+04 2.8916403125e+01
4.4100000000e+04 8.9025919228e+00
4.4200000000e+04 8.3187463302e-01
4.4300000000e+04 2.3942366073e+00
4.4400000000e+04 3.2220745338e+00
4.4500000000e+04 3.8679295466e+00
4.4600000000e+04 8.9711932433e+00
4.4700000000e+04 2.5118034670e+00
4.4800000000e+04 1.2500001730e+01
4.4900000000e+04 4.5877315096e+00
4.5000000000e+04 4.1545472937e+00
4.5100000000e+04 4.2441971202e+00
4.5200000000e+04 9.8035445609e+00
4.5300000000e+04 1.2163795350e+00
4.5400000000e+04 1.7543689570e+00
4.5500000000e+04 3.0517489667e+00
4.5600000000e+04 5.3956538365e+00
4.5700000000e+04 5.9556474784e+00
4.5800000000e+04 5.5318108087e+00
4.5900000000e+04 1.2081752647e+01
4.6000000000e+04 3.3665419667e+01
4.6100000000e+04 1.2772585859e+01
4.6200000000e+04 1.3735114868e+01
4.6300000000e+04 3.3527504795e+01
4.6400000000e+04 2.4348535928e+01
4.6500000000e+04 1.7181153879e+01
4.6600000000e+04 7.4880633947e+00
4.6700000000e+04 2.5130860177e+01
4.6800000000e+04 5.4012489523e+00
4.6900000000e+04 8.8082066564e+00
4.7000000000e+04 1.0030199821e+01
4.7100000000e+04 6.9037128802e+00
4.7200000000e+04 4.1259902854e+00
4.7300000000e+04 3.6606297405e+00
4.7400000000e+04 8.4536365162e+00
4.7500000000e+04 1.0902981185e+01
4.7600000000e+04 8.4783674991e+00
4.7700000000e+04 3.6655729554e+01
4.7800000000e+04 1.0041145682e+01
4.7900000000e+04 3.6022199756e+00
4.8000000000e+04 7.9803553457e+00
4.8100000000e+04 2.6987256951e+01
4.8200000000e+04 3.2850897930e+01
4.8300000000e+04 3.4142121052e+01
4.8400000000e+04 4.5113887721e+01
4.8500000000e+04 1.6501027635e+01
4.8600000000e+04 1.9347372657e+01
4.8700000000e+04 3.5696362918e+01
4.8800000000e+04 1.2442888944e+01
4.8900000000e+04 1.5845326229e+01
4.9000000000e+04 2.6245694659e+01
4.9100000000e+04 8.0140983822e+00
4.9200000000e+04 1.8661535663e+01
4.9300000000e+04 1.6472347480e+01
4.9400000000e+04 5.4349706381e+00
4.9500000000e+04 2.6017113956e+01
4.9600000000e+04 1.2192706777e+01
4.9700000000e+04 9.6619289554e+00
4.9800000000e+04 1.2275641677e+01
4.9900000000e+04 8.3302682207e+00
5.0000000000e+04 2.0581414238e+01
5.0100000000e+04 6.1109813754e+01
5.0200000000e+04 8.5343955914e+01
5.0300000000e+04 8.6885869544e+01
5.0400000000e+04 1.5841595029e+02
5.0500000000e+04 2.4461275338e+02
5.0600000000e+04 1.6556247498e+02
5.0700000000e+04 1.0337104280e+02
5.0800000000e+04 8.3886236465e+01
5.0900000000e+04 7.1135913627e+01
5.1000000000e+04 6.8423779264e+01
5.1100000000e+04 1.1365674557e+02
5.1200000000e+04 1.1360193347e+02
5.1300000000e+04 7.3035111181e+01
5.1400000000e+04 1.2994849087e+02
5.1500000000e+04 1.3612859627e+02
5.1600000000e+04 2.6570693940e+02
5.1700000000e+04 1.4975682741e+02
5.1800000000e+04 1.4529392877e+02
5.1900000000e+04 1.2061162549e+02
5.2000000000e+04 7.8337618684e+01
5.2100000000e+04 1.0872855829e+02
5.2200000000e+04 5.2833681754e+01
5.2300000000e+04 3.9333936541e+01
5.2400000000e+04 4.8080721449e+01
5.2500000000e+04 3.5689759177e+01
5.2600000000e+04 5.0612683838e+01
5.2700000000e+04 1.3863779372e+01
5.2800000000e+04 5.7539169834e+01
5.2900000000e+04 5.8695656541e+01
5.3000000000e+04 5.8402775119e+00
5.3100000000e+04 1.5842970756e+01
5.3200000000e+04 4.3032516666e+01
5.3300000000e+04 3.4652324357e+01
5.3400000000e+04 3.8251323136e+01
5.3500000000e+04 5.5764067437e+01
5.3600000000e+04 5.2249597365e+01
5.3700000000e+04 2.8473908901e+01
5.3800000000e+04 4.2477938493e+01
5.3900000000e+04 6.0351847434e+01
5.4000000000e+04 3.2281887360e+01
5.4100000000e+04 4.0761806086e+01
5.4200000000e+04 6.4370025055e+01
5.4300000000e+04 6.7793273217e+01
5.4400000000e+04 6.2366930243e+01
5.4500000000e+04 3.9931485209e+01
5.4600000000e+04 3.2182709740e+01
5.4700000000e+04 3.4135257994e+01
5.4800000000e+04 3.1222830572e+01
5.4900000000e+04 4.0121880116e+01
5.5000000000e+04 3.0769236600e+01
5.5100000000e+04 4.4285967674e+01
5.5200000000e+04 6.5749684740e+01
5.5300000000e+04 6.9654617248e+01
5.5400000000e+04 5.0829875039e+01
5.5500000000e+04 4.4552889212e+01
5.5600000000e+04 5.8803169199e+01
5.5700000000e+04 7.6552423243e+01
5.5800000000e+04 5.5462857272e+01
5.5900000000e+04 4.4381222515e+01
5.6000000000e+04 5.7459358005e+01
5.6100000000e+04 3.5897644002e+01
5.6200000000e+04 4.6660214339e+01
5.6300000000e+04 3.3042120736e+01
5.6400000000e+04 1.6333522221e+01
5.6500000000e+04 1.8505273323e+01
5.6600000000e+04 2.2845388357e+01
5.6700000000e+04 1.6696803897e+01
5.6800000000e+04 1.8539461512e+00
5.6900000000e+04 1.9080213326e+01
5.7000000000e+04 7.9509876429e+01
5.7100000000e+04 6.3084025735e+01
5.7200000000e+04 6.1752797163e+01
5.7300000000e+04 6.4192541426e+01
5.7400000000e+04 5.7715444973e+01
5.7500000000e+04 5.2044082775e+01
5.7600000000e+04 1.8295120114e+01
5.7700000000e+04 1.3644550997e+01
5.7800000000e+04 1.0248307949e+02
5.7900000000e+04 3.0602354994e+02
5.8000000000e+04 1.7707965749e+01
5.8100000000e+04 1.7526598863e+01
5.8200000000e+04 5.7865076948e+00
5.8300000000e+04 1.1910365550e+01
5.8400000000e+04 1.0250229659e+01
5.8500000000e+04 4.6302921801e+01
5.8600000000e+04 2.5971792046e+01
5.8700000000e+04 2.8197343347e+01
5.8800000000e+04 3.1548471321e+01
5.8900000000e+04 9.0001420759e+00
5.9000000000e+04 2.1860975638e+00
5.9100000000e+04 1.5757027243e+01
5.9200000000e+04 8.9184466296e+00
5.9300000000e+04 9.6878553557e+00
5.9400000000e+04 1.9985855688e+01
5.9500000000e+04 7.6882448007e+00
5.9600000000e+04 1.8204736734e+01
5.9700000000e+04 8.9908820621e+00
5.9800000000e+04 1.8659827845e+01
5.9900000000e+04 8.1993166620e+00
6.0000000000e+04 1.4480456485e+01
6.0100000000e+04 1.5128907363e+01
6.0200000000e+04 5.3490514353e+00
6.0300000000e+04 4.2327028777e+00
6.0400000000e+04 4.5615066451e+00
6.0500000000e+04 4.5702557004e+00
6.0600000000e+04 2.2729336589e+00
6.0700000000e+04 4.1690711030e+00
6.0800000000e+04 5.2180696277e+00
6.0900000000e+04 7.1452800589e+00
6.1000000000e+04 5.4110615123e+00
6.1100000000e+04 1.1397818588e+01
6.1200000000e+04 4.5419491535e+00
6.1300000000e+04 1.5083211128e+01
6.1400000000e+04 4.8211848313e+00
6.1500000000e+04 4.9416842480e+00
6.1600000000e+04 2.6126584447e+00
6.1700000000e+04 3.0054984119e+00
6.1800000000e+04 9.4075830655e+00
6.1900000000e+04 4.3074452420e+00
6.2000000000e+04 3.5647761242e+00
6.2100000000e+04 9.3638576192e+00
6.2200000000e+04 3.9301948672e+01
6.2300000000e+04 5.3212922633e+01
6.2400000000e+04 2.4298976021e+01
6.2500000000e+04 5.2179021521e+01
6.2600000000e+04 2.0446343227e+01
6.2700000000e+04 4.3904443996e+00
6.2800000000e+04 1.0847075420e+01
6.2900000000e+04 1.4714054079e+01
6.3000000000e+04 9.4057870008e+00
6.3100000000e+04 1.2390535370e+01
6.3200000000e+04 1.9006685477e+01
6.3300000000e+04 2.1770566974e+01
6.3400000000e+04 1.1974469357e+01
6.3500000000e+04 3.6648893358e+01
6.3600000000e+04 1.7438148341e+01
6.3700000000e+04 8.0330921244e+00
6.3800000000e+04 1.3265467858e+01
6.3900000000e+04 2.1799823477e+01
6.4000000000e+04 8.2923887854e+00
6.4100000000e+04 4.9264033226e+00
6.4200000000e+04 2.3125442797e+00
6.4300000000e+04 3.2176061804e+01
6.4400000000e+04 1.0245763094e+01
6.4500000000e+04 1.1140095781e+01
6.4600000000e+04 3.2862103915e+00
6.4700000000e+04 8.3449632925e+00
6.4800000000e+04 3.2944721068e+00
6.4900000000e+04 2.9250815120e+01
6.5000000000e+04 1.2477292643e+01
6.5100000000e+04 1.5564330745e+01
6.5200000000e+04 1.5807185034e+01
6.5300000000e+04 4.1165572500e+00
6.5400000000e+04 1.6195978766e+01
6.5500000000e+04 1.6566992281e+01
6.5600000000e+04 3.5706248354e+01
6.5700000000e+04 1.2480765146e+01
6.5800000000e+04 4.8031574731e+00
6.5900000000e+04 1.9897910420e+00
6.6000000000e+04 3.5656776491e+00
6.6100000000e+04 4.3163017219e+00
6.6200000000e+04 1.1347930184e+01
6.6300000000e+04 9.0635873876e+00
6.6400000000e+04 1.1406576008e+01
6.6500000000e+04 1.0443318806e+01
6.6600000000e+04 3.0377598326e+00
6.6700000000e+04 3.3639234127e+00
6.6800000000e+04 3.4628833850e+00
6.6900000000e+04 2.3315164152e+00
6.7000000000e+04 2.2127120635e+00
6.7100000000e+04 9.4672730165e-01
6.7200000000e+04 2.6339970623e+00
6.7300000000e+04 2.3712374071e+00
6.7400000000e+04 3.4442156837e+00
6.7500000000e+04 1.8585045711e+00
6.7600000000e+04 1.0163161318e+00
6.7700000000e+04 1.0649255412e+00
6.7800000000e+04 3.7263138711e-01
6.7900000000e+04 7.3402810813e-01
6.8000000000e+04 2.6263705281e+00
6.8100000000e+04 1.1043120078e+00
6.8200000000e+04 9.5624968495e-01
6.8300000000e+04 1.3541133089e+00
6.8400000000e+04 2.2229691052e+00
6.8500000000e+04 7.5229686757e-01
6.8600000000e+04 1.6274585326e+00
6.8700000000e+04 2.1366577550e+00
6.8800000000e+04 1.9146581670e+00
6.8900000000e+04 2.5739040049e+00
6.9000000000e+04 1.7290835757e+00
6.9100000000e+04 9.4655497771e+00
6.9200000000e+04 2.8785365144e+00
6.9300000000e+04 2.3729708018e+01
6.9400000000e+04 1.4321529315e+01
6.9500000000e+04 1.4294141978e+01
6.9600000000e+04 2.2270331632e+00
6.9700000000e+04 6.2208527268e+00
6.9800000000e+04 4.4497632221e+00
6.9900000000e+04 7.3642344616e+00
7.0000000000e+04 3.2507525604e+00
7.0100000000e+04 2.9552391599e+00
7.0200000000e+04 1.0610230368e+00
7.0300000000e+04 1.7334150369e+00
7.0400000000e+04 1.4166861340e+00
7.0500000000e+04 1.9209447731e+00
7.0600000000e+04 1.8637503445e+00
7.0700000000e+04 3.3173341356e+00
7.0800000000e+04 1.1686970171e+01
7.0900000000e+04 2.7457264244e+01
7.1000000000e+04 1.5236929497e+01
7.1100000000e+04 3.4172259046e+01
7.1200000000e+04 1.9336378463e+01
7.1300000000e+04 2.0136599728e+01
7.1400000000e+04 1.9746099649e+01
7.1500000000e+04 1.8867080674e+01
7.1600000000e+04 5.0436512182e+00
7.1700000000e+04 1.1730874529e+01
7.1800000000e+04 1.2120987356e+01
7.1900000000e+04 1.6481670510e+00
7.2000000000e+04 4.6700847527e+00
7.2100000000e+04 1.9709461859e+00
7.2200000000e+04 1.9604302657e+00
7.2300000000e+04 1.1947030134e+00
7.2400000000e+04 9.8133184008e-01
7.2500000000e+04 7.4049773303e-01
7.2600000000e+04 6.7577997307e-01
7.2700000000e+04 1.1305655936e+00
7.2800000000e+04 1.0954074731e+00
7.2900000000e+04 8.9507964331e-01
7.3000000000e+04 1.2116230535e+00
7.3100000000e+04 4.2272943822e+00
7.3200000000e+04 2.3196390653e+00
7.3300000000e+04 4.1438970134e+00
7.3400000000e+04 1.4751086111e+00
7.3500000000e+04 5.7700785895e+00
7.3600000000e+04 4.2973405193e+00
7.3700000000e+04 1.8565850515e+00
7.3800000000e+04 1.4522236185e+00
7.3900000000e+04 1.4151463127e+00
7.4000000000e+04 8.4084968928e-01
7.4100000000e+04 7.5962622720e-01
7.4200000000e+04 8.0557165038e-01
7.4300000000e+04 9.5286832353e-01
7.4400000000e+04 3.2748797550e+00
7.4500000000e+04 7.1382675645e-01
7.4600000000e+04 2.3211961099e+00
7.4700000000e+04 1.9431146190e+00
7.4800000000e+04 6.9245827673e-01
7.4900000000e+04 6.2271881757e-01
7.5000000000e+04 3.4898655992e-01
7.5100000000e+04 2.5362425897e-01
7.5200000000e+04 6.5569922992e-01
7.5300000000e+04 7.6393059757e-01
7.5400000000e+04 6.1610990708e-01
7.5500000000e+04 6.0159997648e-01
7.5600000000e+04 3.1216707730e-01
7.5700000000e+04 2.3299362591e-01
7.5800000000e+04 1.8059459742e-01
7.5900000000e+04 7.5332857359e-01
7.6000000000e+04 3.5045836497e-01
7.6100000000e+04 7.6827516191e-01
7.6200000000e+04 1.1368937687e+00
7.6300000000e+04 8.2173649064e-01
7.6400000000e+04 6.8222991470e-01
7.6500000000e+04 2.6695169346e+00
7.6600000000e+04 5.9915580613e+00
7.6700000000e+04 3.5351907501e+00
7.6800000000e+04 4.4580313569e+00
7.6900000000e+04 2.0171875492e+00
7.7000000000e+04 1.7429734611e+00
7.7100000000e+04 2.3812236987e+00
7.7200000000e+04 6.5653333087e-01
7.7300000000e+04 3.3774483483e-01
7.7400000000e+04 2.5465566595e-01
7.7500000000e+04 1.3619150919e+00
7.7600000000e+04 6.2349387458e-01
7.7700000000e+04 1.1306346905e+00
7.7800000000e+04 1.2516230791e+00
7.7900000000e+04 1.0767040062e+00
7.8000000000e+04 1.4067123871e+00
7.8100000000e+04 2.1129494731e+00
7.8200000000e+04 1.3659148989e+00
7.8300000000e+04 1.1833067004e+00
7.8400000000e+04 5.7356257389e-01
7.8500000000e+04 6.0758754549e-01
7.8600000000e+04 7.9597549659e-01
7.8700000000e+04 2.9919436546e+00
7.8800000000e+04 1.1169947494e+00
7.8900000000e+04 2.1654063903e+00
7.9000000000e+04 2.0342308610e+00
7.9100000000e+04 2.9553154095e+00
7.9200000000e+04 5.1867156226e-01
7.9300000000e+04 4.1514981958e-01
7.9400000000e+04 3.6629450690e-01
7.9500000000e+04 5.4773642775e-01
7.9600000000e+04 6.4725998928e-01
7.9700000000e+04 6.3939790879e-01
7.9800000000e+04 8.1708371062e-01
7.9900000000e+04 9.8096635221e-01
8.0000000000e+04 1.7515261007e-01
8.0100000000e+04 2.6939513505e-01
8.0200000000e+04 4.1580686712e-01
8.0300000000e+04 3.3595736668e-01
8.0400000000e+04 2.1305216420e-01
8.0500000000e+04 3.2187710198e-01
8.0600000000e+04 5.7508316846e-02
8.0700000000e+04 7.1276813767e-02
8.0800000000e+04 8.9181405979e-02
8.0900000000e+04 2.5640339365e-01
8.1000000000e+04 1.9928936139e-01
8.1100000000e+04 7.0592943800e-01
8.1200000000e+04 4.0546063146e-01
8.1300000000e+04 1.7310704881e-01
8.1400000000e+04 3.0513084825e-02
8.1500000000e+04 6.7855049378e-02
8.1600000000e+04 2.6423818292e-01
8.1700000000e+04 2.6740116987e-01
8.1800000000e+04 9.1227729304e-02
8.1900000000e+04 2.6514091247e-01
8.2000000000e+04 4.6776330117e-01
8.2100000000e+04 5.2024080662e-01
8.2200000000e+04 1.2259645498e+00
8.2300000000e+04 2.4236139345e-01
8.2400000000e+04 5.1806772354e-01
8.2500000000e+04 2.4404072192e+00
8.2600000000e+04 1.4256896947e+00
8.2700000000e+04 2.0269729177e+00
8.2800000000e+04 9.5586432035e-01
8.2900000000e+04 5.0744844356e+00
8.3000000000e+04 4.2328736748e+00
8.3100000000e+04 5.7888319964e+00
8.3200000000e+04 7.5887314266e+00
8.3300000000e+04 5.7831097719e+00
8.3400000000e+04 3.2222333148e+00
8.3500000000e+04 6.3481838390e+00
8.3600000000e+04 3.1877907234e+00
8.3700000000e+04 1.6620744989e+00
8.3800000000e+04 2.6721231829e+00
8.3900000000e+04 8.0871458726e-01
8.4000000000e+04 2.1406890078e+00
8.4100000000e+04 1.5543941444e+00
8.4200000000e+04 2.2772023793e+00
8.4300000000e+04 1.5642649977e+00
8.4400000000e+04 9.3809755645e-01
8.4500000000e+04 7.9556898273e-01
8.4600000000e+04 5.9374531182e-01
8.4700000000e+04 5.8704929392e-01
8.4800000000e+04 1.1647752625e+00
8.4900000000e+04 8.0286805230e-01
8.5000000000e+04 7.7088803523e-01
8.5100000000e+04 7.6671521693e+00
8.5200000000e+04 4.2134970426e+00
8.5300000000e+04 7.3312431683e+00
8.5400000000e+04 2.0840714531e+00
8.5500000000e+04 1.1309267020e+01
8.5600000000e+04 4.4748531376e+00
8.5700000000e+04 1.7301074308e+00
8.5800000000e+04 1.8207372784e+00
8.5900000000e+04 2.4560597415e+00
8.6000000000e+04 3.1058486496e+00
8.6100000000e+04 9.2405527776e-01
8.6200000000e+04 6.6680135357e-01
8.6300000000e+04 1.8427781856e+00
8.6400000000e+04 2.0900275420e+00
8.6500000000e+04 2.4620393606e+00
8.6600000000e+04 2.0896218817e+00
8.6700000000e+04 6.3312622535e-01
8.6800000000e+04 2.4188377506e-01
8.6900000000e+04 1.2191840627e+00
8.7000000000e+04 9.5277923296e-01
8.7100000000e+04 4.2565517080e+00
8.7200000000e+04 4.2555077935e+00
8.7300000000e+04 3.4848937647e+00
8.7400000000e+04 1.6318434965e+00
8.7500000000e+04 5.5147000746e+00
8.7600000000e+04 1.3982967462e+00
8.7700000000e+04 3.1169184465e+00
8.7800000000e+04 5.1799332082e+00
8.7900000000e+04 6.5005134773e+00
8.8000000000e+04 4.8534476244e+00
8.8100000000e+04 1.7637327365e+00